integrator               = md
nsteps                   = 1000
dt                       = 0.002
nstenergy                = 500
cutoff-scheme            = Verlet
coulombtype              = PME
rcoulomb                 = 1.2
rvdw                     = 1.2
pbc                      = xyz
constraints              = h-bonds